Program Version,EnergyPlus, Version 9.3.0-baff08990c, YMD=2021.02.23 16:50
1,5,Environment Title[],Latitude[deg],Longitude[deg],Time Zone[],Elevation[m]
2,8,Day of Simulation[],Month[],Day of Month[],DST Indicator[1=yes 0=no],Hour[],StartMinute[],EndMinute[],DayType
3,5,Cumulative Day of Simulation[],Month[],Day of Month[],DST Indicator[1=yes 0=no],DayType  ! When Daily Meters Requested
4,2,Cumulative Days of Simulation[],Month[]  ! When Monthly Meters Requested
5,1,Cumulative Days of Simulation[] ! When Run Period Meters Requested
6,1,Calendar Year of Simulation[] ! When Annual Meters Requested
18,1,Electricity:Facility [J] !TimeStep
374,1,DistrictCooling:Facility [J] !TimeStep
325,1,DistrictHeating:Facility [J] !TimeStep
20,7,Electricity:Facility [J] !Daily [Value,Min,Hour,Minute,Max,Hour,Minute]
End of Data Dictionary
1,RUN PERIOD 1,  34.08,-118.03,  -8.00,  90.00
2,1, 1, 1, 0, 1, 0.00, 1.00,Tuesday
18,0.0
325,212.3691295533104
374,0.0
2,1, 1, 1, 0, 1, 1.00, 2.00,Tuesday
18,0.0
325,212.3835489701765
374,0.0
2,1, 1, 1, 0, 1, 2.00, 3.00,Tuesday
18,0.0
325,212.3976884872059
374,0.0
2,1, 1, 1, 0, 1, 3.00, 4.00,Tuesday
18,0.0
325,212.41155306970087
374,0.0
2,1, 1, 1, 0, 1, 4.00, 5.00,Tuesday
18,0.0
325,212.42515123442676
374,0.0
2,1, 1, 1, 0, 1, 5.00, 6.00,Tuesday
18,0.0
325,212.4385006659031
374,0.0
2,1, 1, 1, 0, 1, 6.00, 7.00,Tuesday
18,0.0
325,212.4516370256901
374,0.0
2,1, 1, 1, 0, 1, 7.00, 8.00,Tuesday
18,0.0
325,212.46462492058073
374,0.0
2,1, 1, 1, 0, 1, 8.00, 9.00,Tuesday
18,0.0
325,212.47756928925356
374,0.0
2,1, 1, 1, 0, 1, 9.00,10.00,Tuesday
18,0.0
325,212.49062543347689
374,0.0
2,1, 1, 1, 0, 1,10.00,11.00,Tuesday
18,0.0
325,212.50400637148233
374,0.0
2,1, 1, 1, 0, 1,11.00,12.00,Tuesday
18,0.0
325,212.51798682756087
374,0.0
2,1, 1, 1, 0, 1,12.00,13.00,Tuesday
18,0.0
325,212.53290375029114
374,0.0
2,1, 1, 1, 0, 1,13.00,14.00,Tuesday
18,0.0
325,212.54915368437418
374,0.0
2,1, 1, 1, 0, 1,14.00,15.00,Tuesday
18,0.0
325,212.56718757207407
374,0.0
2,1, 1, 1, 0, 1,15.00,16.00,Tuesday
18,0.0
325,212.5875036620368
374,0.0
2,1, 1, 1, 0, 1,16.00,17.00,Tuesday
18,0.0
325,212.61063919777599
374,0.0
2,1, 1, 1, 0, 1,17.00,18.00,Tuesday
18,0.0
325,212.63716149084304
374,0.0
2,1, 1, 1, 0, 1,18.00,19.00,Tuesday
18,0.0
325,212.66765887706243
374,0.0
2,1, 1, 1, 0, 1,19.00,20.00,Tuesday
18,0.0
325,212.7027319453759
374,0.0
2,1, 1, 1, 0, 1,20.00,21.00,Tuesday
18,0.0
325,212.74298532247946
374,0.0
2,1, 1, 1, 0, 1,21.00,22.00,Tuesday
18,0.0
325,212.78902019902035
374,0.0
2,1, 1, 1, 0, 1,22.00,23.00,Tuesday
18,0.0
325,212.84142770936797
374,0.0
2,1, 1, 1, 0, 1,23.00,24.00,Tuesday
18,0.0
325,212.90078321361762
374,0.0
2,1, 1, 1, 0, 1,24.00,25.00,Tuesday
18,0.0
325,212.96764148229389
374,0.0
2,1, 1, 1, 0, 1,25.00,26.00,Tuesday
18,0.0
325,213.04253275420246
374,0.0
2,1, 1, 1, 0, 1,26.00,27.00,Tuesday
18,0.0
325,213.12595961148413
374,0.0
2,1, 1, 1, 0, 1,27.00,28.00,Tuesday
18,0.0
325,213.21839460527372
374,0.0
2,1, 1, 1, 0, 1,28.00,29.00,Tuesday
18,0.0
325,213.3202785533989
374,0.0
2,1, 1, 1, 0, 1,29.00,30.00,Tuesday
18,0.0
325,213.4320194353313
374,0.0
2,1, 1, 1, 0, 1,30.00,31.00,Tuesday
18,0.0
325,213.55399180137963
374,0.0
2,1, 1, 1, 0, 1,31.00,32.00,Tuesday
18,0.0
325,213.6865366282996
374,0.0
2,1, 1, 1, 0, 1,32.00,33.00,Tuesday
18,0.0
325,213.82996154490457
374,0.0
2,1, 1, 1, 0, 1,33.00,34.00,Tuesday
18,0.0
325,213.98454136993906
374,0.0
2,1, 1, 1, 0, 1,34.00,35.00,Tuesday
18,0.0
325,214.150518900808
374,0.0
2,1, 1, 1, 0, 1,35.00,36.00,Tuesday
18,0.0
325,214.3281059038668
374,0.0
2,1, 1, 1, 0, 1,36.00,37.00,Tuesday
18,0.0
325,214.51748426105267
374,0.0
2,1, 1, 1, 0, 1,37.00,38.00,Tuesday
18,0.0
325,214.71880723358937
374,0.0
2,1, 1, 1, 0, 1,38.00,39.00,Tuesday
18,0.0
325,214.93220080871195
374,0.0
2,1, 1, 1, 0, 1,39.00,40.00,Tuesday
18,0.0
325,215.1577651025513
374,0.0
2,1, 1, 1, 0, 1,40.00,41.00,Tuesday
18,0.0
325,215.3955757918652
374,0.0
2,1, 1, 1, 0, 1,41.00,42.00,Tuesday
18,0.0
325,215.64568555817687
374,0.0
2,1, 1, 1, 0, 1,42.00,43.00,Tuesday
18,0.0
325,215.90812552464963
374,0.0
2,1, 1, 1, 0, 1,43.00,44.00,Tuesday
18,0.0
325,216.20402177650699
374,0.0
2,1, 1, 1, 0, 1,44.00,45.00,Tuesday
18,0.0
325,216.51817378122133
374,0.0
2,1, 1, 1, 0, 1,45.00,46.00,Tuesday
18,0.0
325,216.84346992436304
374,0.0
2,1, 1, 1, 0, 1,46.00,47.00,Tuesday
18,0.0
325,217.18018116979926
374,0.0
2,1, 1, 1, 0, 1,47.00,48.00,Tuesday
18,0.0
325,217.528449995873
374,0.0
2,1, 1, 1, 0, 1,48.00,49.00,Tuesday
18,0.0
325,217.8883426955872
374,0.0
2,1, 1, 1, 0, 1,49.00,50.00,Tuesday
18,0.0
325,218.25987480573535
374,0.0
2,1, 1, 1, 0, 1,50.00,51.00,Tuesday
18,0.0
325,218.6430252092964
374,0.0
2,1, 1, 1, 0, 1,51.00,52.00,Tuesday
18,0.0
325,219.03774481940213
374,0.0
2,1, 1, 1, 0, 1,52.00,53.00,Tuesday
18,0.0
325,219.44396238034643
374,0.0
2,1, 1, 1, 0, 1,53.00,54.00,Tuesday
18,0.0
325,219.86158859855778
374,0.0
2,1, 1, 1, 0, 1,54.00,55.00,Tuesday
18,0.0
325,220.29051923270343
374,0.0
2,1, 1, 1, 0, 1,55.00,56.00,Tuesday
18,0.0
325,220.73063750204029
374,0.0
2,1, 1, 1, 0, 1,56.00,57.00,Tuesday
18,0.0
325,221.18181602350206
374,0.0
2,1, 1, 1, 0, 1,57.00,58.00,Tuesday
18,0.0
325,221.6439184085379
374,0.0
2,1, 1, 1, 0, 1,58.00,59.00,Tuesday
18,0.0
325,222.11680061066319
374,0.0
2,1, 1, 1, 0, 1,59.00,60.00,Tuesday
18,0.0
325,222.6003120768655
374,0.0
2,1, 1, 1, 0, 2, 0.00, 1.00,Tuesday
18,0.0
325,223.0942967486181
374,0.0
2,1, 1, 1, 0, 2, 1.00, 2.00,Tuesday
18,0.0
325,223.59859393213584
374,0.0
2,1, 1, 1, 0, 2, 2.00, 3.00,Tuesday
18,0.0
325,224.11303896237315
374,0.0
2,1, 1, 1, 0, 2, 3.00, 4.00,Tuesday
18,0.0
325,224.63746311219206
374,0.0
2,1, 1, 1, 0, 2, 4.00, 5.00,Tuesday
18,0.0
325,225.17169153833945
374,0.0
2,1, 1, 1, 0, 2, 5.00, 6.00,Tuesday
18,0.0
325,225.71553810424343
374,0.0
2,1, 1, 1, 0, 2, 6.00, 7.00,Tuesday
18,0.0
325,226.26879691481003
374,0.0
2,1, 1, 1, 0, 2, 7.00, 8.00,Tuesday
18,0.0
325,226.83123162757279
374,0.0
2,1, 1, 1, 0, 2, 8.00, 9.00,Tuesday
18,0.0
325,227.40256433010246
374,0.0
2,1, 1, 1, 0, 2, 9.00,10.00,Tuesday
18,0.0
325,227.9824657963377
374,0.0
2,1, 1, 1, 0, 2,10.00,11.00,Tuesday
18,0.0
325,228.57054846184389
374,0.0
2,1, 1, 1, 0, 2,11.00,12.00,Tuesday
18,0.0
325,229.1663628168181
374,0.0
2,1, 1, 1, 0, 2,12.00,13.00,Tuesday
18,0.0
325,229.76939730762525
374,0.0
2,1, 1, 1, 0, 2,13.00,14.00,Tuesday
18,0.0
325,230.37908141297295
374,0.0
2,1, 1, 1, 0, 2,14.00,15.00,Tuesday
18,0.0
325,230.99479129519524
374,0.0
2,1, 1, 1, 0, 2,15.00,16.00,Tuesday
18,0.0
325,231.61585733554146
374,0.0
2,1, 1, 1, 0, 2,16.00,17.00,Tuesday
18,0.0
325,232.24157285990936
374,0.0
2,1, 1, 1, 0, 2,17.00,18.00,Tuesday
18,0.0
325,232.87120344632508
374,0.0
2,1, 1, 1, 0, 2,18.00,19.00,Tuesday
18,0.0
325,233.50399630236775
374,0.0
2,1, 1, 1, 0, 2,19.00,20.00,Tuesday
18,0.0
325,234.1391893218816
374,0.0
2,1, 1, 1, 0, 2,20.00,21.00,Tuesday
18,0.0
325,234.77601953769637
374,0.0
2,1, 1, 1, 0, 2,21.00,22.00,Tuesday
18,0.0
325,235.41373078243397
374,0.0
2,1, 1, 1, 0, 2,22.00,23.00,Tuesday
18,0.0
325,236.05158045083724
374,0.0
2,1, 1, 1, 0, 2,23.00,24.00,Tuesday
18,0.0
325,236.68884531730778
374,0.0
2,1, 1, 1, 0, 2,24.00,25.00,Tuesday
18,0.0
325,237.32482641176149
374,0.0
2,1, 1, 1, 0, 2,25.00,26.00,Tuesday
18,0.0
325,237.95885298868599
374,0.0
2,1, 1, 1, 0, 2,26.00,27.00,Tuesday
18,0.0
325,238.59028564864276
374,0.0
2,1, 1, 1, 0, 2,27.00,28.00,Tuesday
18,0.0
325,239.21851868419703
374,0.0
2,1, 1, 1, 0, 2,28.00,29.00,Tuesday
18,0.0
325,239.84298173095795
374,0.0
2,1, 1, 1, 0, 2,29.00,30.00,Tuesday
18,0.0
325,240.4631408048453
374,0.0
2,1, 1, 1, 0, 2,30.00,31.00,Tuesday
18,0.0
325,241.0784988082105
374,0.0
2,1, 1, 1, 0, 2,31.00,32.00,Tuesday
18,0.0
325,241.6885955802377
374,0.0
2,1, 1, 1, 0, 2,32.00,33.00,Tuesday
18,0.0
325,242.2930075663407
374,0.0
2,1, 1, 1, 0, 2,33.00,34.00,Tuesday
18,0.0
325,242.89134716913845
374,0.0
2,1, 1, 1, 0, 2,34.00,35.00,Tuesday
18,0.0
325,243.4832618448831
374,0.0
2,1, 1, 1, 0, 2,35.00,36.00,Tuesday
18,0.0
325,244.06843299348567
374,0.0
2,1, 1, 1, 0, 2,36.00,37.00,Tuesday
18,0.0
325,244.64657469290843
374,0.0
2,1, 1, 1, 0, 2,37.00,38.00,Tuesday
18,0.0
325,245.21743231465048
374,0.0
2,1, 1, 1, 0, 2,38.00,39.00,Tuesday
18,0.0
325,245.78078105877013
374,0.0
2,1, 1, 1, 0, 2,39.00,40.00,Tuesday
18,0.0
325,246.33642443377085
374,0.0
2,1, 1, 1, 0, 2,40.00,41.00,Tuesday
18,0.0
325,246.88419271010393
374,0.0
2,1, 1, 1, 0, 2,41.00,42.00,Tuesday
18,0.0
325,247.42394136569596
374,0.0
2,1, 1, 1, 0, 2,42.00,43.00,Tuesday
18,0.0
325,247.95554954131377
374,0.0
2,1, 1, 1, 0, 2,43.00,44.00,Tuesday
18,0.0
325,248.47891851993155
374,0.0
2,1, 1, 1, 0, 2,44.00,45.00,Tuesday
18,0.0
325,248.99397024028077
374,0.0
2,1, 1, 1, 0, 2,45.00,46.00,Tuesday
18,0.0
325,249.50064585460036
374,0.0
2,1, 1, 1, 0, 2,46.00,47.00,Tuesday
18,0.0
325,249.99890433578686
374,0.0
2,1, 1, 1, 0, 2,47.00,48.00,Tuesday
18,0.0
325,250.48872113980904
374,0.0
2,1, 1, 1, 0, 2,48.00,49.00,Tuesday
18,0.0
325,250.97008692674536
374,0.0
2,1, 1, 1, 0, 2,49.00,50.00,Tuesday
18,0.0
325,251.4430063417921
374,0.0
2,1, 1, 1, 0, 2,50.00,51.00,Tuesday
18,0.0
325,251.9074968580253
374,0.0
2,1, 1, 1, 0, 2,51.00,52.00,Tuesday
18,0.0
325,252.36358768171164
374,0.0
2,1, 1, 1, 0, 2,52.00,53.00,Tuesday
18,0.0
325,252.81131871816567
374,0.0
2,1, 1, 1, 0, 2,53.00,54.00,Tuesday
18,0.0
325,253.2190523294821
374,0.0
2,1, 1, 1, 0, 2,54.00,55.00,Tuesday
18,0.0
325,253.61144565970796
374,0.0
2,1, 1, 1, 0, 2,55.00,56.00,Tuesday
18,0.0
325,253.99967447054457
374,0.0
2,1, 1, 1, 0, 2,56.00,57.00,Tuesday
18,0.0
325,254.38317769624065
374,0.0
2,1, 1, 1, 0, 2,57.00,58.00,Tuesday
18,0.0
325,254.76158526718334
374,0.0
2,1, 1, 1, 0, 2,58.00,59.00,Tuesday
18,0.0
325,255.13463943326776
374,0.0
2,1, 1, 1, 0, 2,59.00,60.00,Tuesday
18,0.0
325,255.50215599511837
374,0.0
2,1, 1, 1, 0, 3, 0.00, 1.00,Tuesday
18,0.0
325,255.86400266872495
374,0.0
2,1, 1, 1, 0, 3, 1.00, 2.00,Tuesday
18,0.0
325,256.2200858028268
374,0.0
2,1, 1, 1, 0, 3, 2.00, 3.00,Tuesday
18,0.0
325,256.57034161348067
374,0.0
2,1, 1, 1, 0, 3, 3.00, 4.00,Tuesday
18,0.0
325,256.91473007247398
374,0.0
2,1, 1, 1, 0, 3, 4.00, 5.00,Tuesday
18,0.0
325,257.25323045789767
374,0.0
2,1, 1, 1, 0, 3, 5.00, 6.00,Tuesday
18,0.0
325,257.58583799950886
374,0.0
2,1, 1, 1, 0, 3, 6.00, 7.00,Tuesday
18,0.0
325,257.91256127620047
374,0.0
2,1, 1, 1, 0, 3, 7.00, 8.00,Tuesday
18,0.0
325,258.2334201465415
374,0.0
2,1, 1, 1, 0, 3, 8.00, 9.00,Tuesday
18,0.0
325,258.548444069163
374,0.0
2,1, 1, 1, 0, 3, 9.00,10.00,Tuesday
18,0.0
325,258.8576707167021
374,0.0
2,1, 1, 1, 0, 3,10.00,11.00,Tuesday
18,0.0
325,259.16114481288107
374,0.0
2,1, 1, 1, 0, 3,11.00,12.00,Tuesday
18,0.0
325,259.45891714575057
374,0.0
2,1, 1, 1, 0, 3,12.00,13.00,Tuesday
18,0.0
325,259.75104372179887
374,0.0
2,1, 1, 1, 0, 3,13.00,14.00,Tuesday
18,0.0
325,260.0375850333944
374,0.0
2,1, 1, 1, 0, 3,14.00,15.00,Tuesday
18,0.0
325,260.31860541972716
374,0.0
2,1, 1, 1, 0, 3,15.00,16.00,Tuesday
18,0.0
325,260.59417250740128
374,0.0
2,1, 1, 1, 0, 3,16.00,17.00,Tuesday
18,0.0
325,260.86435671581509
374,0.0
2,1, 1, 1, 0, 3,17.00,18.00,Tuesday
18,0.0
325,261.12923082067939
374,0.0
2,1, 1, 1, 0, 3,18.00,19.00,Tuesday
18,0.0
325,261.3888695648666
374,0.0
2,1, 1, 1, 0, 3,19.00,20.00,Tuesday
18,0.0
325,261.64334931336728
374,0.0
2,1, 1, 1, 0, 3,20.00,21.00,Tuesday
18,0.0
325,261.89274774344997
374,0.0
2,1, 1, 1, 0, 3,21.00,22.00,Tuesday
18,0.0
325,262.1371435697938
374,0.0
2,1, 1, 1, 0, 3,22.00,23.00,Tuesday
18,0.0
325,262.376616296408
374,0.0
2,1, 1, 1, 0, 3,23.00,24.00,Tuesday
18,0.0
325,262.611245996061
374,0.0
2,1, 1, 1, 0, 3,24.00,25.00,Tuesday
18,0.0
325,262.841113111183
374,0.0
2,1, 1, 1, 0, 3,25.00,26.00,Tuesday
18,0.0
325,263.06629827674677
374,0.0
2,1, 1, 1, 0, 3,26.00,27.00,Tuesday
18,0.0
325,263.28688216063707
374,0.0
2,1, 1, 1, 0, 3,27.00,28.00,Tuesday
18,0.0
325,263.5029453208153
374,0.0
2,1, 1, 1, 0, 3,28.00,29.00,Tuesday
18,0.0
325,263.7145680779531
374,0.0
2,1, 1, 1, 0, 3,29.00,30.00,Tuesday
18,0.0
325,263.9218304010956
374,0.0
2,1, 1, 1, 0, 3,30.00,31.00,Tuesday
18,0.0
325,264.1248118059093
374,0.0
2,1, 1, 1, 0, 3,31.00,32.00,Tuesday
18,0.0
325,264.32359126384429
374,0.0
2,1, 1, 1, 0, 3,32.00,33.00,Tuesday
18,0.0
325,264.51824712161626
374,0.0
2,1, 1, 1, 0, 3,33.00,34.00,Tuesday
18,0.0
325,264.70885702978867
374,0.0
2,1, 1, 1, 0, 3,34.00,35.00,Tuesday
18,0.0
325,264.89549787922666
374,0.0
2,1, 1, 1, 0, 3,35.00,36.00,Tuesday
18,0.0
325,265.07824574632198
374,0.0
2,1, 1, 1, 0, 3,36.00,37.00,Tuesday
18,0.0
325,265.2571758432259
374,0.0
2,1, 1, 1, 0, 3,37.00,38.00,Tuesday
18,0.0
325,265.4323624766971
374,0.0
2,1, 1, 1, 0, 3,38.00,39.00,Tuesday
18,0.0
325,265.6038790102298
374,0.0
2,1, 1, 1, 0, 3,39.00,40.00,Tuesday
18,0.0
325,265.77179783313337
374,0.0
2,1, 1, 1, 0, 3,40.00,41.00,Tuesday
18,0.0
325,265.93619033395046
374,0.0
2,1, 1, 1, 0, 3,41.00,42.00,Tuesday
18,0.0
325,266.0971268774415
374,0.0
2,1, 1, 1, 0, 3,42.00,43.00,Tuesday
18,0.0
325,266.2546767858271
374,0.0
2,1, 1, 1, 0, 3,43.00,44.00,Tuesday
18,0.0
325,266.408908324886
374,0.0
2,1, 1, 1, 0, 3,44.00,45.00,Tuesday
18,0.0
325,266.5598886907424
374,0.0
2,1, 1, 1, 0, 3,45.00,46.00,Tuesday
18,0.0
325,266.7076840017626
374,0.0
2,1, 1, 1, 0, 3,46.00,47.00,Tuesday
18,0.0
325,266.85235929220428
374,0.0
2,1, 1, 1, 0, 3,47.00,48.00,Tuesday
18,0.0
325,266.99397850826707
374,0.0
2,1, 1, 1, 0, 3,48.00,49.00,Tuesday
18,0.0
325,267.1326045065371
374,0.0
2,1, 1, 1, 0, 3,49.00,50.00,Tuesday
18,0.0
325,267.2682990542672
374,0.0
2,1, 1, 1, 0, 3,50.00,51.00,Tuesday
18,0.0
325,267.4011228315112
374,0.0
2,1, 1, 1, 0, 3,51.00,52.00,Tuesday
18,0.0
325,267.53113543479466
374,0.0
2,1, 1, 1, 0, 3,52.00,53.00,Tuesday
18,0.0
325,267.6583953823729
374,0.0
2,1, 1, 1, 0, 3,53.00,54.00,Tuesday
18,0.0
325,267.7829601202757
374,0.0
2,1, 1, 1, 0, 3,54.00,55.00,Tuesday
18,0.0
325,267.9048860304988
374,0.0
2,1, 1, 1, 0, 3,55.00,56.00,Tuesday
18,0.0
325,268.0242284392648
374,0.0
2,1, 1, 1, 0, 3,56.00,57.00,Tuesday
18,0.0
325,268.14104162651128
374,0.0
2,1, 1, 1, 0, 3,57.00,58.00,Tuesday
18,0.0
325,268.25537883654536
374,0.0
2,1, 1, 1, 0, 3,58.00,59.00,Tuesday
18,0.0
325,268.3672922888627
374,0.0
2,1, 1, 1, 0, 3,59.00,60.00,Tuesday
18,0.0
325,268.47683319026148
374,0.0
2,1, 1, 1, 0, 4, 0.00, 1.00,Tuesday
18,0.0
325,268.5840517464794
374,0.0
2,1, 1, 1, 0, 4, 1.00, 2.00,Tuesday
18,0.0
325,268.68899717580919
374,0.0
2,1, 1, 1, 0, 4, 2.00, 3.00,Tuesday
18,0.0
325,268.7917177214649
374,0.0
2,1, 1, 1, 0, 4, 3.00, 4.00,Tuesday
18,0.0
325,268.892260665757
374,0.0
2,1, 1, 1, 0, 4, 4.00, 5.00,Tuesday
18,0.0
325,268.9906723433115
374,0.0
2,1, 1, 1, 0, 4, 5.00, 6.00,Tuesday
18,0.0
325,269.08699815571478
374,0.0
2,1, 1, 1, 0, 4, 6.00, 7.00,Tuesday
18,0.0
325,269.18128258559366
374,0.0
2,1, 1, 1, 0, 4, 7.00, 8.00,Tuesday
18,0.0
325,269.27356921050889
374,0.0
2,1, 1, 1, 0, 4, 8.00, 9.00,Tuesday
18,0.0
325,269.36390071859025
374,0.0
2,1, 1, 1, 0, 4, 9.00,10.00,Tuesday
18,0.0
325,269.4523189222673
374,0.0
2,1, 1, 1, 0, 4,10.00,11.00,Tuesday
18,0.0
325,269.53886477300326
374,0.0
2,1, 1, 1, 0, 4,11.00,12.00,Tuesday
18,0.0
325,269.62357837679977
374,0.0
2,1, 1, 1, 0, 4,12.00,13.00,Tuesday
18,0.0
325,269.7064990076615
374,0.0
2,1, 1, 1, 0, 4,13.00,14.00,Tuesday
18,0.0
325,269.7876651238039
374,0.0
2,1, 1, 1, 0, 4,14.00,15.00,Tuesday
18,0.0
325,269.8671143802585
374,0.0
2,1, 1, 1, 0, 4,15.00,16.00,Tuesday
18,0.0
325,269.94488364580999
374,0.0
2,1, 1, 1, 0, 4,16.00,17.00,Tuesday
18,0.0
325,270.0210090153564
374,0.0
2,1, 1, 1, 0, 4,17.00,18.00,Tuesday
18,0.0
325,270.0955258254817
374,0.0
2,1, 1, 1, 0, 4,18.00,19.00,Tuesday
18,0.0
325,270.1684686684189
374,0.0
2,1, 1, 1, 0, 4,19.00,20.00,Tuesday
18,0.0
325,270.23987140595866
374,0.0
2,1, 1, 1, 0, 4,20.00,21.00,Tuesday
18,0.0
325,270.30976718378727
374,0.0
2,1, 1, 1, 0, 4,21.00,22.00,Tuesday
18,0.0
325,270.37818844469259
374,0.0
2,1, 1, 1, 0, 4,22.00,23.00,Tuesday
18,0.0
325,270.4451669431682
374,0.0
2,1, 1, 1, 0, 4,23.00,24.00,Tuesday
18,0.0
325,270.51073375798526
374,0.0
2,1, 1, 1, 0, 4,24.00,25.00,Tuesday
18,0.0
325,270.5749193061274
374,0.0
2,1, 1, 1, 0, 4,25.00,26.00,Tuesday
18,0.0
325,270.6377533558202
374,0.0
2,1, 1, 1, 0, 4,26.00,27.00,Tuesday
18,0.0
325,270.6992650390339
374,0.0
2,1, 1, 1, 0, 4,27.00,28.00,Tuesday
18,0.0
325,270.75948286535097
374,0.0
2,1, 1, 1, 0, 4,28.00,29.00,Tuesday
18,0.0
325,270.81843473339179
374,0.0
2,1, 1, 1, 0, 4,29.00,30.00,Tuesday
18,0.0
325,270.87614794393178
374,0.0
2,1, 1, 1, 0, 4,30.00,31.00,Tuesday
18,0.0
325,270.93264921189287
374,0.0
2,1, 1, 1, 0, 4,31.00,32.00,Tuesday
18,0.0
325,270.98796467826107
374,0.0
2,1, 1, 1, 0, 4,32.00,33.00,Tuesday
18,0.0
325,271.04211992217867
374,0.0
2,1, 1, 1, 0, 4,33.00,34.00,Tuesday
18,0.0
325,271.09513997248089
374,0.0
2,1, 1, 1, 0, 4,34.00,35.00,Tuesday
18,0.0
325,271.1470493185334
374,0.0
2,1, 1, 1, 0, 4,35.00,36.00,Tuesday
18,0.0
325,271.19787192261358
374,0.0
2,1, 1, 1, 0, 4,36.00,37.00,Tuesday
18,0.0
325,271.24763122983497
374,0.0
2,1, 1, 1, 0, 4,37.00,38.00,Tuesday
18,0.0
325,271.2963501794229
374,0.0
2,1, 1, 1, 0, 4,38.00,39.00,Tuesday
18,0.0
325,271.3440512154989
374,0.0
2,1, 1, 1, 0, 4,39.00,40.00,Tuesday
18,0.0
325,271.39075629727815
374,0.0
2,1, 1, 1, 0, 4,40.00,41.00,Tuesday
18,0.0
325,271.43648690926059
374,0.0
2,1, 1, 1, 0, 4,41.00,42.00,Tuesday
18,0.0
325,271.4812640713535
374,0.0
2,1, 1, 1, 0, 4,42.00,43.00,Tuesday
18,0.0
325,271.52510834874877
374,0.0
2,1, 1, 1, 0, 4,43.00,44.00,Tuesday
18,0.0
325,271.5680398617724
374,0.0
2,1, 1, 1, 0, 4,44.00,45.00,Tuesday
18,0.0
325,271.6100782945
374,0.0
2,1, 1, 1, 0, 4,45.00,46.00,Tuesday
18,0.0
325,271.6512429054661
374,0.0
2,1, 1, 1, 0, 4,46.00,47.00,Tuesday
18,0.0
325,271.6915525355012
374,0.0
2,1, 1, 1, 0, 4,47.00,48.00,Tuesday
18,0.0
325,271.73102561736416
374,0.0
2,1, 1, 1, 0, 4,48.00,49.00,Tuesday
18,0.0
325,271.7696801842067
374,0.0
2,1, 1, 1, 0, 4,49.00,50.00,Tuesday
18,0.0
325,271.8075338782365
374,0.0
2,1, 1, 1, 0, 4,50.00,51.00,Tuesday
18,0.0
325,271.84460395915496
374,0.0
2,1, 1, 1, 0, 4,51.00,52.00,Tuesday
18,0.0
325,271.8809073123498
374,0.0
2,1, 1, 1, 0, 4,52.00,53.00,Tuesday
18,0.0
325,271.91646045681417
374,0.0
2,1, 1, 1, 0, 4,53.00,54.00,Tuesday
18,0.0
325,271.9512795533592
374,0.0
2,1, 1, 1, 0, 4,54.00,55.00,Tuesday
18,0.0
325,271.98538041212489
374,0.0
2,1, 1, 1, 0, 4,55.00,56.00,Tuesday
18,0.0
325,272.0187785001234
374,0.0
2,1, 1, 1, 0, 4,56.00,57.00,Tuesday
18,0.0
325,272.0514889487845
374,0.0
2,1, 1, 1, 0, 4,57.00,58.00,Tuesday
18,0.0
325,272.0835265611503
374,0.0
2,1, 1, 1, 0, 4,58.00,59.00,Tuesday
18,0.0
325,272.11490581884848
374,0.0
2,1, 1, 1, 0, 4,59.00,60.00,Tuesday
18,0.0
325,272.14564088943
374,0.0
2,1, 1, 1, 0, 5, 0.00, 1.00,Tuesday
18,0.0
325,272.17574563263266
374,0.0
2,1, 1, 1, 0, 5, 1.00, 2.00,Tuesday
18,0.0
325,272.2052336079173
374,0.0
2,1, 1, 1, 0, 5, 2.00, 3.00,Tuesday
18,0.0
325,272.2341180795501
374,0.0
2,1, 1, 1, 0, 5, 3.00, 4.00,Tuesday
18,0.0
325,272.2624120249179
374,0.0
2,1, 1, 1, 0, 5, 4.00, 5.00,Tuesday
18,0.0
325,272.2901281390091
374,0.0
2,1, 1, 1, 0, 5, 5.00, 6.00,Tuesday
18,0.0
325,272.3172788416105
374,0.0
2,1, 1, 1, 0, 5, 6.00, 7.00,Tuesday
18,0.0
325,272.3438762829074
374,0.0
2,1, 1, 1, 0, 5, 7.00, 8.00,Tuesday
18,0.0
325,272.36993234942477
374,0.0
2,1, 1, 1, 0, 5, 8.00, 9.00,Tuesday
18,0.0
325,272.39545866973688
374,0.0
2,1, 1, 1, 0, 5, 9.00,10.00,Tuesday
18,0.0
325,272.420466620149
374,0.0
2,1, 1, 1, 0, 5,10.00,11.00,Tuesday
18,0.0
325,272.4449673301615
374,0.0
2,1, 1, 1, 0, 5,11.00,12.00,Tuesday
18,0.0
325,272.46897168772196
374,0.0
2,1, 1, 1, 0, 5,12.00,13.00,Tuesday
18,0.0
325,272.49249034462766
374,0.0
2,1, 1, 1, 0, 5,13.00,14.00,Tuesday
18,0.0
325,272.51553372175069
374,0.0
2,1, 1, 1, 0, 5,14.00,15.00,Tuesday
18,0.0
325,272.53811201371726
374,0.0
2,1, 1, 1, 0, 5,15.00,16.00,Tuesday
18,0.0
325,272.5602351942553
374,0.0
2,1, 1, 1, 0, 5,16.00,17.00,Tuesday
18,0.0
325,272.5819130206628
374,0.0
2,1, 1, 1, 0, 5,17.00,18.00,Tuesday
18,0.0
325,272.6031550389166
374,0.0
2,1, 1, 1, 0, 5,18.00,19.00,Tuesday
18,0.0
325,272.6239705876628
374,0.0
2,1, 1, 1, 0, 5,19.00,20.00,Tuesday
18,0.0
325,272.64436880348287
374,0.0
2,1, 1, 1, 0, 5,20.00,21.00,Tuesday
18,0.0
325,272.6643586248224
374,0.0
2,1, 1, 1, 0, 5,21.00,22.00,Tuesday
18,0.0
325,272.6839487963776
374,0.0
2,1, 1, 1, 0, 5,22.00,23.00,Tuesday
18,0.0
325,272.70314787354206
374,0.0
2,1, 1, 1, 0, 5,23.00,24.00,Tuesday
18,0.0
325,272.721964226248
374,0.0
2,1, 1, 1, 0, 5,24.00,25.00,Tuesday
18,0.0
325,272.740406043215
374,0.0
2,1, 1, 1, 0, 5,25.00,26.00,Tuesday
18,0.0
325,272.758481335818
374,0.0
2,1, 1, 1, 0, 5,26.00,27.00,Tuesday
18,0.0
325,272.77619794200288
374,0.0
2,1, 1, 1, 0, 5,27.00,28.00,Tuesday
18,0.0
325,272.79356352980587
374,0.0
2,1, 1, 1, 0, 5,28.00,29.00,Tuesday
18,0.0
325,272.81058560150088
374,0.0
2,1, 1, 1, 0, 5,29.00,30.00,Tuesday
18,0.0
325,272.8272714968194
374,0.0
2,1, 1, 1, 0, 5,30.00,31.00,Tuesday
18,0.0
325,272.84362839681088
374,0.0
2,1, 1, 1, 0, 5,31.00,32.00,Tuesday
18,0.0
325,272.85966332693996
374,0.0
2,1, 1, 1, 0, 5,32.00,33.00,Tuesday
18,0.0
325,272.8753831609333
374,0.0
2,1, 1, 1, 0, 5,33.00,34.00,Tuesday
18,0.0
325,272.8907946235836
374,0.0
2,1, 1, 1, 0, 5,34.00,35.00,Tuesday
18,0.0
325,272.9059042946096
374,0.0
2,1, 1, 1, 0, 5,35.00,36.00,Tuesday
18,0.0
325,272.92071861089428
374,0.0
2,1, 1, 1, 0, 5,36.00,37.00,Tuesday
18,0.0
325,272.935243870877
374,0.0
2,1, 1, 1, 0, 5,37.00,38.00,Tuesday
18,0.0
325,272.9494862362867
374,0.0
2,1, 1, 1, 0, 5,38.00,39.00,Tuesday
18,0.0
325,272.9634517357908
374,0.0
2,1, 1, 1, 0, 5,39.00,40.00,Tuesday
18,0.0
325,272.97714626827658
374,0.0
2,1, 1, 1, 0, 5,40.00,41.00,Tuesday
18,0.0
325,272.9905756043104
374,0.0
2,1, 1, 1, 0, 5,41.00,42.00,Tuesday
18,0.0
325,273.0037453909745
374,0.0
2,1, 1, 1, 0, 5,42.00,43.00,Tuesday
18,0.0
325,273.01666115228957
374,0.0
2,1, 1, 1, 0, 5,43.00,44.00,Tuesday
18,0.0
325,273.02932829375779
374,0.0
2,1, 1, 1, 0, 5,44.00,45.00,Tuesday
18,0.0
325,273.0417521039044
374,0.0
2,1, 1, 1, 0, 5,45.00,46.00,Tuesday
18,0.0
325,273.0539377571904
374,0.0
2,1, 1, 1, 0, 5,46.00,47.00,Tuesday
18,0.0
325,273.0658903163044
374,0.0
2,1, 1, 1, 0, 5,47.00,48.00,Tuesday
18,0.0
325,273.0776147348229
374,0.0
2,1, 1, 1, 0, 5,48.00,49.00,Tuesday
18,0.0
325,273.0891158594204
374,0.0
2,1, 1, 1, 0, 5,49.00,50.00,Tuesday
18,0.0
325,273.1003984321751
374,0.0
2,1, 1, 1, 0, 5,50.00,51.00,Tuesday
18,0.0
325,273.11146709314706
374,0.0
2,1, 1, 1, 0, 5,51.00,52.00,Tuesday
18,0.0
325,273.12232638194709
374,0.0
2,1, 1, 1, 0, 5,52.00,53.00,Tuesday
18,0.0
325,273.13298074078599
374,0.0
2,1, 1, 1, 0, 5,53.00,54.00,Tuesday
18,0.0
325,273.14343451604369
374,0.0
2,1, 1, 1, 0, 5,54.00,55.00,Tuesday
18,0.0
325,273.15369196014447
374,0.0
2,1, 1, 1, 0, 5,55.00,56.00,Tuesday
18,0.0
325,273.16375723435388
374,0.0
2,1, 1, 1, 0, 5,56.00,57.00,Tuesday
18,0.0
325,273.17363440985675
374,0.0
2,1, 1, 1, 0, 5,57.00,58.00,Tuesday
18,0.0
325,273.18332747050587
374,0.0
2,1, 1, 1, 0, 5,58.00,59.00,Tuesday
18,0.0
325,273.19284031430927
374,0.0
2,1, 1, 1, 0, 5,59.00,60.00,Tuesday
18,0.0
325,273.20217675510778
374,0.0
2,1, 1, 1, 0, 6, 0.00, 1.00,Tuesday
18,0.0
325,273.21134052502426
374,0.0
2,1, 1, 1, 0, 6, 1.00, 2.00,Tuesday
18,0.0
325,273.22033527575288
374,0.0
2,1, 1, 1, 0, 6, 2.00, 3.00,Tuesday
18,0.0
325,273.22916458028439
374,0.0
2,1, 1, 1, 0, 6, 3.00, 4.00,Tuesday
18,0.0
325,273.23783193494588
374,0.0
2,1, 1, 1, 0, 6, 4.00, 5.00,Tuesday
18,0.0
325,273.24634076083376
374,0.0
2,1, 1, 1, 0, 6, 5.00, 6.00,Tuesday
18,0.0
325,273.2546944053752
374,0.0
2,1, 1, 1, 0, 6, 6.00, 7.00,Tuesday
18,0.0
325,273.2628961442447
374,0.0
2,1, 1, 1, 0, 6, 7.00, 8.00,Tuesday
18,0.0
325,273.2709491824153
374,0.0
2,1, 1, 1, 0, 6, 8.00, 9.00,Tuesday
18,0.0
325,273.278856656259
374,0.0
2,1, 1, 1, 0, 6, 9.00,10.00,Tuesday
18,0.0
325,273.2866216346656
374,0.0
2,1, 1, 1, 0, 6,10.00,11.00,Tuesday
18,0.0
325,273.294247120632
374,0.0
2,1, 1, 1, 0, 6,11.00,12.00,Tuesday
18,0.0
325,273.30173605266739
374,0.0
2,1, 1, 1, 0, 6,12.00,13.00,Tuesday
18,0.0
325,273.30909130625289
374,0.0
2,1, 1, 1, 0, 6,13.00,14.00,Tuesday
18,0.0
325,273.31631569493308
374,0.0
2,1, 1, 1, 0, 6,14.00,15.00,Tuesday
18,0.0
325,273.32341197215097
374,0.0
2,1, 1, 1, 0, 6,15.00,16.00,Tuesday
18,0.0
325,273.3303828320799
374,0.0
2,1, 1, 1, 0, 6,16.00,17.00,Tuesday
18,0.0
325,273.33723091091317
374,0.0
2,1, 1, 1, 0, 6,17.00,18.00,Tuesday
18,0.0
325,273.34395878879379
374,0.0
2,1, 1, 1, 0, 6,18.00,19.00,Tuesday
18,0.0
325,273.3505689897879
374,0.0
2,1, 1, 1, 0, 6,19.00,20.00,Tuesday
18,0.0
325,273.3570639847426
374,0.0
2,1, 1, 1, 0, 6,20.00,21.00,Tuesday
18,0.0
325,273.36344619063086
374,0.0
2,1, 1, 1, 0, 6,21.00,22.00,Tuesday
18,0.0
325,273.369717973294
374,0.0
2,1, 1, 1, 0, 6,22.00,23.00,Tuesday
18,0.0
325,273.3758816476529
374,0.0
2,1, 1, 1, 0, 6,23.00,24.00,Tuesday
18,0.0
325,273.38193947882015
374,0.0
2,1, 1, 1, 0, 6,24.00,25.00,Tuesday
18,0.0
325,273.3878936836345
374,0.0
2,1, 1, 1, 0, 6,25.00,26.00,Tuesday
18,0.0
325,273.3937464315886
374,0.0
2,1, 1, 1, 0, 6,26.00,27.00,Tuesday
18,0.0
325,273.39949984506799
374,0.0
2,1, 1, 1, 0, 6,27.00,28.00,Tuesday
18,0.0
325,273.4051560017656
374,0.0
2,1, 1, 1, 0, 6,28.00,29.00,Tuesday
18,0.0
325,273.41071693451797
374,0.0
2,1, 1, 1, 0, 6,29.00,30.00,Tuesday
18,0.0
325,273.4161846327106
374,0.0
2,1, 1, 1, 0, 6,30.00,31.00,Tuesday
18,0.0
325,273.42156104311018
374,0.0
2,1, 1, 1, 0, 6,31.00,32.00,Tuesday
18,0.0
325,273.42684807106476
374,0.0
2,1, 1, 1, 0, 6,32.00,33.00,Tuesday
18,0.0
325,273.4320475808044
374,0.0
2,1, 1, 1, 0, 6,33.00,34.00,Tuesday
18,0.0
325,273.43716139708479
374,0.0
2,1, 1, 1, 0, 6,34.00,35.00,Tuesday
18,0.0
325,273.4421913052415
374,0.0
2,1, 1, 1, 0, 6,35.00,36.00,Tuesday
18,0.0
325,273.4471390529234
374,0.0
2,1, 1, 1, 0, 6,36.00,37.00,Tuesday
18,0.0
325,273.45200635005775
374,0.0
2,1, 1, 1, 0, 6,37.00,38.00,Tuesday
18,0.0
325,273.45679487020109
374,0.0
2,1, 1, 1, 0, 6,38.00,39.00,Tuesday
18,0.0
325,273.4615062510307
374,0.0
2,1, 1, 1, 0, 6,39.00,40.00,Tuesday
18,0.0
325,273.4661420953876
374,0.0
2,1, 1, 1, 0, 6,40.00,41.00,Tuesday
18,0.0
325,273.47070397183645
374,0.0
2,1, 1, 1, 0, 6,41.00,42.00,Tuesday
18,0.0
325,273.47519341527916
374,0.0
2,1, 1, 1, 0, 6,42.00,43.00,Tuesday
18,0.0
325,273.4796119281078
374,0.0
2,1, 1, 1, 0, 6,43.00,44.00,Tuesday
18,0.0
325,273.4839609804021
374,0.0
2,1, 1, 1, 0, 6,44.00,45.00,Tuesday
18,0.0
325,273.4882420112195
374,0.0
2,1, 1, 1, 0, 6,45.00,46.00,Tuesday
18,0.0
325,273.492456428512
374,0.0
2,1, 1, 1, 0, 6,46.00,47.00,Tuesday
18,0.0
325,273.4966056105599
374,0.0
2,1, 1, 1, 0, 6,47.00,48.00,Tuesday
18,0.0
325,273.50069090597796
374,0.0
2,1, 1, 1, 0, 6,48.00,49.00,Tuesday
18,0.0
325,273.50471363480667
374,0.0
2,1, 1, 1, 0, 6,49.00,50.00,Tuesday
18,0.0
325,273.508675088874
374,0.0
2,1, 1, 1, 0, 6,50.00,51.00,Tuesday
18,0.0
325,273.5125765324642
374,0.0
2,1, 1, 1, 0, 6,51.00,52.00,Tuesday
18,0.0
325,273.51641920306749
374,0.0
2,1, 1, 1, 0, 6,52.00,53.00,Tuesday
18,0.0
325,273.52020431142815
374,0.0
2,1, 1, 1, 0, 6,53.00,54.00,Tuesday
18,0.0
325,273.5239330431137
374,0.0
2,1, 1, 1, 0, 6,54.00,55.00,Tuesday
18,0.0
325,273.5276065578183
374,0.0
2,1, 1, 1, 0, 6,55.00,56.00,Tuesday
18,0.0
325,273.5312259909734
374,0.0
2,1, 1, 1, 0, 6,56.00,57.00,Tuesday
18,0.0
325,273.5347924536518
374,0.0
2,1, 1, 1, 0, 6,57.00,58.00,Tuesday
18,0.0
325,273.53830703318865
374,0.0
2,1, 1, 1, 0, 6,58.00,59.00,Tuesday
18,0.0
325,273.54177079401327
374,0.0
2,1, 1, 1, 0, 6,59.00,60.00,Tuesday
18,0.0
325,273.5451847778336
374,0.0
2,1, 1, 1, 0, 7, 0.00, 1.00,Tuesday
18,0.0
325,273.54855000397728
374,0.0
2,1, 1, 1, 0, 7, 1.00, 2.00,Tuesday
18,0.0
325,273.5518674702576
374,0.0
2,1, 1, 1, 0, 7, 2.00, 3.00,Tuesday
18,0.0
325,273.5551381534447
374,0.0
2,1, 1, 1, 0, 7, 3.00, 4.00,Tuesday
18,0.0
325,273.55836300936746
374,0.0
2,1, 1, 1, 0, 7, 4.00, 5.00,Tuesday
18,0.0
325,273.56154297348669
374,0.0
2,1, 1, 1, 0, 7, 5.00, 6.00,Tuesday
18,0.0
325,273.5646789616385
374,0.0
2,1, 1, 1, 0, 7, 6.00, 7.00,Tuesday
18,0.0
325,273.5677718700071
374,0.0
2,1, 1, 1, 0, 7, 7.00, 8.00,Tuesday
18,0.0
325,273.5708225757593
374,0.0
2,1, 1, 1, 0, 7, 8.00, 9.00,Tuesday
18,0.0
325,273.57383193750817
374,0.0
2,1, 1, 1, 0, 7, 9.00,10.00,Tuesday
18,0.0
325,273.57680079551076
374,0.0
2,1, 1, 1, 0, 7,10.00,11.00,Tuesday
18,0.0
325,273.57972997217987
374,0.0
2,1, 1, 1, 0, 7,11.00,12.00,Tuesday
18,0.0
325,273.5826202726161
374,0.0
2,1, 1, 1, 0, 7,12.00,13.00,Tuesday
18,0.0
325,273.5854724845604
374,0.0
2,1, 1, 1, 0, 7,13.00,14.00,Tuesday
18,0.0
325,273.58828737931398
374,0.0
2,1, 1, 1, 0, 7,14.00,15.00,Tuesday
18,0.0
325,273.5910657116233
374,0.0
2,1, 1, 1, 0, 7,15.00,16.00,Tuesday
18,0.0
325,273.59380822030746
374,0.0
2,1, 1, 1, 0, 7,16.00,17.00,Tuesday
18,0.0
325,273.5965156286193
374,0.0
2,1, 1, 1, 0, 7,17.00,18.00,Tuesday
18,0.0
325,273.5991886442662
374,0.0
2,1, 1, 1, 0, 7,18.00,19.00,Tuesday
18,0.0
325,273.60182796018759
374,0.0
2,1, 1, 1, 0, 7,19.00,20.00,Tuesday
18,0.0
325,273.60443425452106
374,0.0
2,1, 1, 1, 0, 7,20.00,21.00,Tuesday
18,0.0
325,273.60700819105207
374,0.0
2,1, 1, 1, 0, 7,21.00,22.00,Tuesday
18,0.0
325,273.60955041958968
374,0.0
2,1, 1, 1, 0, 7,22.00,23.00,Tuesday
18,0.0
325,273.6120615761161
374,0.0
2,1, 1, 1, 0, 7,23.00,24.00,Tuesday
18,0.0
325,273.61454228327838
374,0.0
2,1, 1, 1, 0, 7,24.00,25.00,Tuesday
18,0.0
325,273.61699315025819
374,0.0
2,1, 1, 1, 0, 7,25.00,26.00,Tuesday
18,0.0
325,273.6194147737205
374,0.0
2,1, 1, 1, 0, 7,26.00,27.00,Tuesday
18,0.0
325,273.62180773738376
374,0.0
2,1, 1, 1, 0, 7,27.00,28.00,Tuesday
18,0.0
325,273.624172612831
374,0.0
2,1, 1, 1, 0, 7,28.00,29.00,Tuesday
18,0.0
325,273.62650995938795
374,0.0
2,1, 1, 1, 0, 7,29.00,30.00,Tuesday
18,0.0
325,273.62882032475
374,0.0
2,1, 1, 1, 0, 7,30.00,31.00,Tuesday
18,0.0
325,273.63110424481877
374,0.0
2,1, 1, 1, 0, 7,31.00,32.00,Tuesday
18,0.0
325,273.6333622444318
374,0.0
2,1, 1, 1, 0, 7,32.00,33.00,Tuesday
18,0.0
325,273.6355948371852
374,0.0
2,1, 1, 1, 0, 7,33.00,34.00,Tuesday
18,0.0
325,273.6378025257613
374,0.0
2,1, 1, 1, 0, 7,34.00,35.00,Tuesday
18,0.0
325,273.6399858024606
374,0.0
2,1, 1, 1, 0, 7,35.00,36.00,Tuesday
18,0.0
325,273.6421451489287
374,0.0